+ 0.5 0 1 cbr 500 ------- 0 0.0 1.0 0 0
- 0.5 0 1 cbr 500 ------- 0 0.0 1.0 0 0
+ 0.505 0 1 cbr 500 ------- 0 0.0 1.0 1 1
- 0.505 0 1 cbr 500 ------- 0 0.0 1.0 1 1
+ 0.51 0 1 cbr 500 ------- 0 0.0 1.0 2 2
- 0.51 0 1 cbr 500 ------- 0 0.0 1.0 2 2
r 0.512 0 1 cbr 500 ------- 0 0.0 1.0 0 0
+ 0.515 0 1 cbr 500 ------- 0 0.0 1.0 3 3
- 0.515 0 1 cbr 500 ------- 0 0.0 1.0 3 3
r 0.517 0 1 cbr 500 ------- 0 0.0 1.0 1 1
+ 0.52 0 1 cbr 500 ------- 0 0.0 1.0 4 4
- 0.52 0 1 cbr 500 ------- 0 0.0 1.0 4 4
r 0.522 0 1 cbr 500 ------- 0 0.0 1.0 2 2
+ 0.525 0 1 cbr 500 ------- 0 0.0 1.0 5 5
- 0.525 0 1 cbr 500 ------- 0 0.0 1.0 5 5
r 0.527 0 1 cbr 500 ------- 0 0.0 1.0 3 3
+ 0.53 0 1 cbr 500 ------- 0 0.0 1.0 6 6
- 0.53 0 1 cbr 500 ------- 0 0.0 1.0 6 6
r 0.532 0 1 cbr 500 ------- 0 0.0 1.0 4 4
+ 0.535 0 1 cbr 500 ------- 0 0.0 1.0 7 7
- 0.535 0 1 cbr 500 ------- 0 0.0 1.0 7 7
r 0.537 0 1 cbr 500 ------- 0 0.0 1.0 5 5
+ 0.54 0 1 cbr 500 ------- 0 0.0 1.0 8 8
- 0.54 0 1 cbr 500 ------- 0 0.0 1.0 8 8
r 0.542 0 1 cbr 500 ------- 0 0.0 1.0 6 6
+ 0.545 0 1 cbr 500 ------- 0 0.0 1.0 9 9
- 0.545 0 1 cbr 500 ------- 0 0.0 1.0 9 9
r 0.547 0 1 cbr 500 ------- 0 0.0 1.0 7 7
+ 0.55 0 1 cbr 500 ------- 0 0.0 1.0 10 10
- 0.55 0 1 cbr 500 ------- 0 0.0 1.0 10 10
r 0.552 0 1 cbr 500 ------- 0 0.0 1.0 8 8
+ 0.555 0 1 cbr 500 ------- 0 0.0 1.0 11 11
- 0.555 0 1 cbr 500 ------- 0 0.0 1.0 11 11
r 0.557 0 1 cbr 500 ------- 0 0.0 1.0 9 9
+ 0.56 0 1 cbr 500 ------- 0 0.0 1.0 12 12
- 0.56 0 1 cbr 500 ------- 0 0.0 1.0 12 12
r 0.562 0 1 cbr 500 ------- 0 0.0 1.0 10 10
+ 0.565 0 1 cbr 500 ------- 0 0.0 1.0 13 13
- 0.565 0 1 cbr 500 ------- 0 0.0 1.0 13 13
r 0.567 0 1 cbr 500 ------- 0 0.0 1.0 11 11
+ 0.57 0 1 cbr 500 ------- 0 0.0 1.0 14 14
- 0.57 0 1 cbr 500 ------- 0 0.0 1.0 14 14
r 0.572 0 1 cbr 500 ------- 0 0.0 1.0 12 12
+ 0.575 0 1 cbr 500 ------- 0 0.0 1.0 15 15
- 0.575 0 1 cbr 500 ------- 0 0.0 1.0 15 15
r 0.577 0 1 cbr 500 ------- 0 0.0 1.0 13 13
+ 0.58 0 1 cbr 500 ------- 0 0.0 1.0 16 16
- 0.58 0 1 cbr 500 ------- 0 0.0 1.0 16 16
r 0.582 0 1 cbr 500 ------- 0 0.0 1.0 14 14
+ 0.585 0 1 cbr 500 ------- 0 0.0 1.0 17 17
- 0.585 0 1 cbr 500 ------- 0 0.0 1.0 17 17
r 0.587 0 1 cbr 500 ------- 0 0.0 1.0 15 15
+ 0.59 0 1 cbr 500 ------- 0 0.0 1.0 18 18
- 0.59 0 1 cbr 500 ------- 0 0.0 1.0 18 18
r 0.592 0 1 cbr 500 ------- 0 0.0 1.0 16 16
+ 0.595 0 1 cbr 500 ------- 0 0.0 1.0 19 19
- 0.595 0 1 cbr 500 ------- 0 0.0 1.0 19 19
r 0.597 0 1 cbr 500 ------- 0 0.0 1.0 17 17
+ 0.6 0 1 cbr 500 ------- 0 0.0 1.0 20 20
- 0.6 0 1 cbr 500 ------- 0 0.0 1.0 20 20
r 0.602 0 1 cbr 500 ------- 0 0.0 1.0 18 18
+ 0.605 0 1 cbr 500 ------- 0 0.0 1.0 21 21
- 0.605 0 1 cbr 500 ------- 0 0.0 1.0 21 21
r 0.607 0 1 cbr 500 ------- 0 0.0 1.0 19 19
+ 0.61 0 1 cbr 500 ------- 0 0.0 1.0 22 22
- 0.61 0 1 cbr 500 ------- 0 0.0 1.0 22 22
r 0.612 0 1 cbr 500 ------- 0 0.0 1.0 20 20
+ 0.615 0 1 cbr 500 ------- 0 0.0 1.0 23 23
- 0.615 0 1 cbr 500 ------- 0 0.0 1.0 23 23
r 0.617 0 1 cbr 500 ------- 0 0.0 1.0 21 21
+ 0.62 0 1 cbr 500 ------- 0 0.0 1.0 24 24
- 0.62 0 1 cbr 500 ------- 0 0.0 1.0 24 24
r 0.622 0 1 cbr 500 ------- 0 0.0 1.0 22 22
+ 0.625 0 1 cbr 500 ------- 0 0.0 1.0 25 25
- 0.625 0 1 cbr 500 ------- 0 0.0 1.0 25 25
r 0.627 0 1 cbr 500 ------- 0 0.0 1.0 23 23
+ 0.63 0 1 cbr 500 ------- 0 0.0 1.0 26 26
- 0.63 0 1 cbr 500 ------- 0 0.0 1.0 26 26
r 0.632 0 1 cbr 500 ------- 0 0.0 1.0 24 24
+ 0.635 0 1 cbr 500 ------- 0 0.0 1.0 27 27
- 0.635 0 1 cbr 500 ------- 0 0.0 1.0 27 27
r 0.637 0 1 cbr 500 ------- 0 0.0 1.0 25 25
+ 0.64 0 1 cbr 500 ------- 0 0.0 1.0 28 28
- 0.64 0 1 cbr 500 ------- 0 0.0 1.0 28 28
r 0.642 0 1 cbr 500 ------- 0 0.0 1.0 26 26
+ 0.645 0 1 cbr 500 ------- 0 0.0 1.0 29 29
- 0.645 0 1 cbr 500 ------- 0 0.0 1.0 29 29
r 0.647 0 1 cbr 500 ------- 0 0.0 1.0 27 27
+ 0.65 0 1 cbr 500 ------- 0 0.0 1.0 30 30
- 0.65 0 1 cbr 500 ------- 0 0.0 1.0 30 30
r 0.652 0 1 cbr 500 ------- 0 0.0 1.0 28 28
+ 0.655 0 1 cbr 500 ------- 0 0.0 1.0 31 31
- 0.655 0 1 cbr 500 ------- 0 0.0 1.0 31 31
r 0.657 0 1 cbr 500 ------- 0 0.0 1.0 29 29
+ 0.66 0 1 cbr 500 ------- 0 0.0 1.0 32 32
- 0.66 0 1 cbr 500 ------- 0 0.0 1.0 32 32
r 0.662 0 1 cbr 500 ------- 0 0.0 1.0 30 30
+ 0.665 0 1 cbr 500 ------- 0 0.0 1.0 33 33
- 0.665 0 1 cbr 500 ------- 0 0.0 1.0 33 33
r 0.667 0 1 cbr 500 ------- 0 0.0 1.0 31 31
+ 0.67 0 1 cbr 500 ------- 0 0.0 1.0 34 34
- 0.67 0 1 cbr 500 ------- 0 0.0 1.0 34 34
r 0.672 0 1 cbr 500 ------- 0 0.0 1.0 32 32
+ 0.675 0 1 cbr 500 ------- 0 0.0 1.0 35 35
- 0.675 0 1 cbr 500 ------- 0 0.0 1.0 35 35
r 0.677 0 1 cbr 500 ------- 0 0.0 1.0 33 33
+ 0.68 0 1 cbr 500 ------- 0 0.0 1.0 36 36
- 0.68 0 1 cbr 500 ------- 0 0.0 1.0 36 36
r 0.682 0 1 cbr 500 ------- 0 0.0 1.0 34 34
+ 0.685 0 1 cbr 500 ------- 0 0.0 1.0 37 37
- 0.685 0 1 cbr 500 ------- 0 0.0 1.0 37 37
r 0.687 0 1 cbr 500 ------- 0 0.0 1.0 35 35
+ 0.69 0 1 cbr 500 ------- 0 0.0 1.0 38 38
- 0.69 0 1 cbr 500 ------- 0 0.0 1.0 38 38
r 0.692 0 1 cbr 500 ------- 0 0.0 1.0 36 36
+ 0.695 0 1 cbr 500 ------- 0 0.0 1.0 39 39
- 0.695 0 1 cbr 500 ------- 0 0.0 1.0 39 39
r 0.697 0 1 cbr 500 ------- 0 0.0 1.0 37 37
+ 0.7 0 1 cbr 500 ------- 0 0.0 1.0 40 40
- 0.7 0 1 cbr 500 ------- 0 0.0 1.0 40 40
r 0.702 0 1 cbr 500 ------- 0 0.0 1.0 38 38
+ 0.705 0 1 cbr 500 ------- 0 0.0 1.0 41 41
- 0.705 0 1 cbr 500 ------- 0 0.0 1.0 41 41
r 0.707 0 1 cbr 500 ------- 0 0.0 1.0 39 39
+ 0.71 0 1 cbr 500 ------- 0 0.0 1.0 42 42
- 0.71 0 1 cbr 500 ------- 0 0.0 1.0 42 42
r 0.712 0 1 cbr 500 ------- 0 0.0 1.0 40 40
+ 0.715 0 1 cbr 500 ------- 0 0.0 1.0 43 43
- 0.715 0 1 cbr 500 ------- 0 0.0 1.0 43 43
r 0.717 0 1 cbr 500 ------- 0 0.0 1.0 41 41
+ 0.72 0 1 cbr 500 ------- 0 0.0 1.0 44 44
- 0.72 0 1 cbr 500 ------- 0 0.0 1.0 44 44
r 0.722 0 1 cbr 500 ------- 0 0.0 1.0 42 42
+ 0.725 0 1 cbr 500 ------- 0 0.0 1.0 45 45
- 0.725 0 1 cbr 500 ------- 0 0.0 1.0 45 45
r 0.727 0 1 cbr 500 ------- 0 0.0 1.0 43 43
+ 0.73 0 1 cbr 500 ------- 0 0.0 1.0 46 46
- 0.73 0 1 cbr 500 ------- 0 0.0 1.0 46 46
r 0.732 0 1 cbr 500 ------- 0 0.0 1.0 44 44
+ 0.735 0 1 cbr 500 ------- 0 0.0 1.0 47 47
- 0.735 0 1 cbr 500 ------- 0 0.0 1.0 47 47
r 0.737 0 1 cbr 500 ------- 0 0.0 1.0 45 45
+ 0.74 0 1 cbr 500 ------- 0 0.0 1.0 48 48
- 0.74 0 1 cbr 500 ------- 0 0.0 1.0 48 48
r 0.742 0 1 cbr 500 ------- 0 0.0 1.0 46 46
+ 0.745 0 1 cbr 500 ------- 0 0.0 1.0 49 49
- 0.745 0 1 cbr 500 ------- 0 0.0 1.0 49 49
r 0.747 0 1 cbr 500 ------- 0 0.0 1.0 47 47
+ 0.75 0 1 cbr 500 ------- 0 0.0 1.0 50 50
- 0.75 0 1 cbr 500 ------- 0 0.0 1.0 50 50
r 0.752 0 1 cbr 500 ------- 0 0.0 1.0 48 48
+ 0.755 0 1 cbr 500 ------- 0 0.0 1.0 51 51
- 0.755 0 1 cbr 500 ------- 0 0.0 1.0 51 51
r 0.757 0 1 cbr 500 ------- 0 0.0 1.0 49 49
+ 0.76 0 1 cbr 500 ------- 0 0.0 1.0 52 52
- 0.76 0 1 cbr 500 ------- 0 0.0 1.0 52 52
r 0.762 0 1 cbr 500 ------- 0 0.0 1.0 50 50
+ 0.765 0 1 cbr 500 ------- 0 0.0 1.0 53 53
- 0.765 0 1 cbr 500 ------- 0 0.0 1.0 53 53
r 0.767 0 1 cbr 500 ------- 0 0.0 1.0 51 51
+ 0.77 0 1 cbr 500 ------- 0 0.0 1.0 54 54
- 0.77 0 1 cbr 500 ------- 0 0.0 1.0 54 54
r 0.772 0 1 cbr 500 ------- 0 0.0 1.0 52 52
+ 0.775 0 1 cbr 500 ------- 0 0.0 1.0 55 55
- 0.775 0 1 cbr 500 ------- 0 0.0 1.0 55 55
r 0.777 0 1 cbr 500 ------- 0 0.0 1.0 53 53
+ 0.78 0 1 cbr 500 ------- 0 0.0 1.0 56 56
- 0.78 0 1 cbr 500 ------- 0 0.0 1.0 56 56
r 0.782 0 1 cbr 500 ------- 0 0.0 1.0 54 54
+ 0.785 0 1 cbr 500 ------- 0 0.0 1.0 57 57
- 0.785 0 1 cbr 500 ------- 0 0.0 1.0 57 57
r 0.787 0 1 cbr 500 ------- 0 0.0 1.0 55 55
+ 0.79 0 1 cbr 500 ------- 0 0.0 1.0 58 58
- 0.79 0 1 cbr 500 ------- 0 0.0 1.0 58 58
r 0.792 0 1 cbr 500 ------- 0 0.0 1.0 56 56
+ 0.795 0 1 cbr 500 ------- 0 0.0 1.0 59 59
- 0.795 0 1 cbr 500 ------- 0 0.0 1.0 59 59
r 0.797 0 1 cbr 500 ------- 0 0.0 1.0 57 57
+ 0.8 0 1 cbr 500 ------- 0 0.0 1.0 60 60
- 0.8 0 1 cbr 500 ------- 0 0.0 1.0 60 60
r 0.802 0 1 cbr 500 ------- 0 0.0 1.0 58 58
+ 0.805 0 1 cbr 500 ------- 0 0.0 1.0 61 61
- 0.805 0 1 cbr 500 ------- 0 0.0 1.0 61 61
r 0.807 0 1 cbr 500 ------- 0 0.0 1.0 59 59
+ 0.81 0 1 cbr 500 ------- 0 0.0 1.0 62 62
- 0.81 0 1 cbr 500 ------- 0 0.0 1.0 62 62
r 0.812 0 1 cbr 500 ------- 0 0.0 1.0 60 60
+ 0.815 0 1 cbr 500 ------- 0 0.0 1.0 63 63
- 0.815 0 1 cbr 500 ------- 0 0.0 1.0 63 63
r 0.817 0 1 cbr 500 ------- 0 0.0 1.0 61 61
+ 0.82 0 1 cbr 500 ------- 0 0.0 1.0 64 64
- 0.82 0 1 cbr 500 ------- 0 0.0 1.0 64 64
r 0.822 0 1 cbr 500 ------- 0 0.0 1.0 62 62
+ 0.825 0 1 cbr 500 ------- 0 0.0 1.0 65 65
- 0.825 0 1 cbr 500 ------- 0 0.0 1.0 65 65
r 0.827 0 1 cbr 500 ------- 0 0.0 1.0 63 63
+ 0.83 0 1 cbr 500 ------- 0 0.0 1.0 66 66
- 0.83 0 1 cbr 500 ------- 0 0.0 1.0 66 66
r 0.832 0 1 cbr 500 ------- 0 0.0 1.0 64 64
+ 0.835 0 1 cbr 500 ------- 0 0.0 1.0 67 67
- 0.835 0 1 cbr 500 ------- 0 0.0 1.0 67 67
r 0.837 0 1 cbr 500 ------- 0 0.0 1.0 65 65
+ 0.84 0 1 cbr 500 ------- 0 0.0 1.0 68 68
- 0.84 0 1 cbr 500 ------- 0 0.0 1.0 68 68
r 0.842 0 1 cbr 500 ------- 0 0.0 1.0 66 66
+ 0.845 0 1 cbr 500 ------- 0 0.0 1.0 69 69
- 0.845 0 1 cbr 500 ------- 0 0.0 1.0 69 69
r 0.847 0 1 cbr 500 ------- 0 0.0 1.0 67 67
+ 0.85 0 1 cbr 500 ------- 0 0.0 1.0 70 70
- 0.85 0 1 cbr 500 ------- 0 0.0 1.0 70 70
r 0.852 0 1 cbr 500 ------- 0 0.0 1.0 68 68
+ 0.855 0 1 cbr 500 ------- 0 0.0 1.0 71 71
- 0.855 0 1 cbr 500 ------- 0 0.0 1.0 71 71
r 0.857 0 1 cbr 500 ------- 0 0.0 1.0 69 69
+ 0.86 0 1 cbr 500 ------- 0 0.0 1.0 72 72
- 0.86 0 1 cbr 500 ------- 0 0.0 1.0 72 72
r 0.862 0 1 cbr 500 ------- 0 0.0 1.0 70 70
+ 0.865 0 1 cbr 500 ------- 0 0.0 1.0 73 73
- 0.865 0 1 cbr 500 ------- 0 0.0 1.0 73 73
r 0.867 0 1 cbr 500 ------- 0 0.0 1.0 71 71
+ 0.87 0 1 cbr 500 ------- 0 0.0 1.0 74 74
- 0.87 0 1 cbr 500 ------- 0 0.0 1.0 74 74
r 0.872 0 1 cbr 500 ------- 0 0.0 1.0 72 72
+ 0.875 0 1 cbr 500 ------- 0 0.0 1.0 75 75
- 0.875 0 1 cbr 500 ------- 0 0.0 1.0 75 75
r 0.877 0 1 cbr 500 ------- 0 0.0 1.0 73 73
+ 0.88 0 1 cbr 500 ------- 0 0.0 1.0 76 76
- 0.88 0 1 cbr 500 ------- 0 0.0 1.0 76 76
r 0.882 0 1 cbr 500 ------- 0 0.0 1.0 74 74
+ 0.885 0 1 cbr 500 ------- 0 0.0 1.0 77 77
- 0.885 0 1 cbr 500 ------- 0 0.0 1.0 77 77
r 0.887 0 1 cbr 500 ------- 0 0.0 1.0 75 75
+ 0.89 0 1 cbr 500 ------- 0 0.0 1.0 78 78
- 0.89 0 1 cbr 500 ------- 0 0.0 1.0 78 78
r 0.892 0 1 cbr 500 ------- 0 0.0 1.0 76 76
+ 0.895 0 1 cbr 500 ------- 0 0.0 1.0 79 79
- 0.895 0 1 cbr 500 ------- 0 0.0 1.0 79 79
r 0.897 0 1 cbr 500 ------- 0 0.0 1.0 77 77
+ 0.9 0 1 cbr 500 ------- 0 0.0 1.0 80 80
- 0.9 0 1 cbr 500 ------- 0 0.0 1.0 80 80
r 0.902 0 1 cbr 500 ------- 0 0.0 1.0 78 78
+ 0.905 0 1 cbr 500 ------- 0 0.0 1.0 81 81
- 0.905 0 1 cbr 500 ------- 0 0.0 1.0 81 81
r 0.907 0 1 cbr 500 ------- 0 0.0 1.0 79 79
+ 0.91 0 1 cbr 500 ------- 0 0.0 1.0 82 82
- 0.91 0 1 cbr 500 ------- 0 0.0 1.0 82 82
r 0.912 0 1 cbr 500 ------- 0 0.0 1.0 80 80
+ 0.915 0 1 cbr 500 ------- 0 0.0 1.0 83 83
- 0.915 0 1 cbr 500 ------- 0 0.0 1.0 83 83
r 0.917 0 1 cbr 500 ------- 0 0.0 1.0 81 81
+ 0.92 0 1 cbr 500 ------- 0 0.0 1.0 84 84
- 0.92 0 1 cbr 500 ------- 0 0.0 1.0 84 84
r 0.922 0 1 cbr 500 ------- 0 0.0 1.0 82 82
+ 0.925 0 1 cbr 500 ------- 0 0.0 1.0 85 85
- 0.925 0 1 cbr 500 ------- 0 0.0 1.0 85 85
r 0.927 0 1 cbr 500 ------- 0 0.0 1.0 83 83
+ 0.93 0 1 cbr 500 ------- 0 0.0 1.0 86 86
- 0.93 0 1 cbr 500 ------- 0 0.0 1.0 86 86
r 0.932 0 1 cbr 500 ------- 0 0.0 1.0 84 84
+ 0.935 0 1 cbr 500 ------- 0 0.0 1.0 87 87
- 0.935 0 1 cbr 500 ------- 0 0.0 1.0 87 87
r 0.937 0 1 cbr 500 ------- 0 0.0 1.0 85 85
+ 0.94 0 1 cbr 500 ------- 0 0.0 1.0 88 88
- 0.94 0 1 cbr 500 ------- 0 0.0 1.0 88 88
r 0.942 0 1 cbr 500 ------- 0 0.0 1.0 86 86
+ 0.945 0 1 cbr 500 ------- 0 0.0 1.0 89 89
- 0.945 0 1 cbr 500 ------- 0 0.0 1.0 89 89
r 0.947 0 1 cbr 500 ------- 0 0.0 1.0 87 87
+ 0.95 0 1 cbr 500 ------- 0 0.0 1.0 90 90
- 0.95 0 1 cbr 500 ------- 0 0.0 1.0 90 90
r 0.952 0 1 cbr 500 ------- 0 0.0 1.0 88 88
+ 0.955 0 1 cbr 500 ------- 0 0.0 1.0 91 91
- 0.955 0 1 cbr 500 ------- 0 0.0 1.0 91 91
r 0.957 0 1 cbr 500 ------- 0 0.0 1.0 89 89
+ 0.96 0 1 cbr 500 ------- 0 0.0 1.0 92 92
- 0.96 0 1 cbr 500 ------- 0 0.0 1.0 92 92
r 0.962 0 1 cbr 500 ------- 0 0.0 1.0 90 90
+ 0.965 0 1 cbr 500 ------- 0 0.0 1.0 93 93
- 0.965 0 1 cbr 500 ------- 0 0.0 1.0 93 93
r 0.967 0 1 cbr 500 ------- 0 0.0 1.0 91 91
+ 0.97 0 1 cbr 500 ------- 0 0.0 1.0 94 94
- 0.97 0 1 cbr 500 ------- 0 0.0 1.0 94 94
r 0.972 0 1 cbr 500 ------- 0 0.0 1.0 92 92
+ 0.975 0 1 cbr 500 ------- 0 0.0 1.0 95 95
- 0.975 0 1 cbr 500 ------- 0 0.0 1.0 95 95
r 0.977 0 1 cbr 500 ------- 0 0.0 1.0 93 93
+ 0.98 0 1 cbr 500 ------- 0 0.0 1.0 96 96
- 0.98 0 1 cbr 500 ------- 0 0.0 1.0 96 96
r 0.982 0 1 cbr 500 ------- 0 0.0 1.0 94 94
+ 0.985 0 1 cbr 500 ------- 0 0.0 1.0 97 97
- 0.985 0 1 cbr 500 ------- 0 0.0 1.0 97 97
r 0.987 0 1 cbr 500 ------- 0 0.0 1.0 95 95
+ 0.99 0 1 cbr 500 ------- 0 0.0 1.0 98 98
- 0.99 0 1 cbr 500 ------- 0 0.0 1.0 98 98
r 0.992 0 1 cbr 500 ------- 0 0.0 1.0 96 96
+ 0.995 0 1 cbr 500 ------- 0 0.0 1.0 99 99
- 0.995 0 1 cbr 500 ------- 0 0.0 1.0 99 99
r 0.997 0 1 cbr 500 ------- 0 0.0 1.0 97 97
+ 1 0 1 cbr 500 ------- 0 0.0 1.0 100 100
- 1 0 1 cbr 500 ------- 0 0.0 1.0 100 100
r 1.002 0 1 cbr 500 ------- 0 0.0 1.0 98 98
+ 1.005 0 1 cbr 500 ------- 0 0.0 1.0 101 101
- 1.005 0 1 cbr 500 ------- 0 0.0 1.0 101 101
r 1.007 0 1 cbr 500 ------- 0 0.0 1.0 99 99
+ 1.01 0 1 cbr 500 ------- 0 0.0 1.0 102 102
- 1.01 0 1 cbr 500 ------- 0 0.0 1.0 102 102
r 1.012 0 1 cbr 500 ------- 0 0.0 1.0 100 100
+ 1.015 0 1 cbr 500 ------- 0 0.0 1.0 103 103
- 1.015 0 1 cbr 500 ------- 0 0.0 1.0 103 103
r 1.017 0 1 cbr 500 ------- 0 0.0 1.0 101 101
+ 1.02 0 1 cbr 500 ------- 0 0.0 1.0 104 104
- 1.02 0 1 cbr 500 ------- 0 0.0 1.0 104 104
r 1.022 0 1 cbr 500 ------- 0 0.0 1.0 102 102
+ 1.025 0 1 cbr 500 ------- 0 0.0 1.0 105 105
- 1.025 0 1 cbr 500 ------- 0 0.0 1.0 105 105
r 1.027 0 1 cbr 500 ------- 0 0.0 1.0 103 103
+ 1.03 0 1 cbr 500 ------- 0 0.0 1.0 106 106
- 1.03 0 1 cbr 500 ------- 0 0.0 1.0 106 106
r 1.032 0 1 cbr 500 ------- 0 0.0 1.0 104 104
+ 1.035 0 1 cbr 500 ------- 0 0.0 1.0 107 107
- 1.035 0 1 cbr 500 ------- 0 0.0 1.0 107 107
r 1.037 0 1 cbr 500 ------- 0 0.0 1.0 105 105
+ 1.04 0 1 cbr 500 ------- 0 0.0 1.0 108 108
- 1.04 0 1 cbr 500 ------- 0 0.0 1.0 108 108
r 1.042 0 1 cbr 500 ------- 0 0.0 1.0 106 106
+ 1.045 0 1 cbr 500 ------- 0 0.0 1.0 109 109
- 1.045 0 1 cbr 500 ------- 0 0.0 1.0 109 109
r 1.047 0 1 cbr 500 ------- 0 0.0 1.0 107 107
+ 1.05 0 1 cbr 500 ------- 0 0.0 1.0 110 110
- 1.05 0 1 cbr 500 ------- 0 0.0 1.0 110 110
r 1.052 0 1 cbr 500 ------- 0 0.0 1.0 108 108
+ 1.055 0 1 cbr 500 ------- 0 0.0 1.0 111 111
- 1.055 0 1 cbr 500 ------- 0 0.0 1.0 111 111
r 1.057 0 1 cbr 500 ------- 0 0.0 1.0 109 109
+ 1.06 0 1 cbr 500 ------- 0 0.0 1.0 112 112
- 1.06 0 1 cbr 500 ------- 0 0.0 1.0 112 112
r 1.062 0 1 cbr 500 ------- 0 0.0 1.0 110 110
+ 1.065 0 1 cbr 500 ------- 0 0.0 1.0 113 113
- 1.065 0 1 cbr 500 ------- 0 0.0 1.0 113 113
r 1.067 0 1 cbr 500 ------- 0 0.0 1.0 111 111
+ 1.07 0 1 cbr 500 ------- 0 0.0 1.0 114 114
- 1.07 0 1 cbr 500 ------- 0 0.0 1.0 114 114
r 1.072 0 1 cbr 500 ------- 0 0.0 1.0 112 112
+ 1.075 0 1 cbr 500 ------- 0 0.0 1.0 115 115
- 1.075 0 1 cbr 500 ------- 0 0.0 1.0 115 115
r 1.077 0 1 cbr 500 ------- 0 0.0 1.0 113 113
+ 1.08 0 1 cbr 500 ------- 0 0.0 1.0 116 116
- 1.08 0 1 cbr 500 ------- 0 0.0 1.0 116 116
r 1.082 0 1 cbr 500 ------- 0 0.0 1.0 114 114
+ 1.085 0 1 cbr 500 ------- 0 0.0 1.0 117 117
- 1.085 0 1 cbr 500 ------- 0 0.0 1.0 117 117
r 1.087 0 1 cbr 500 ------- 0 0.0 1.0 115 115
+ 1.09 0 1 cbr 500 ------- 0 0.0 1.0 118 118
- 1.09 0 1 cbr 500 ------- 0 0.0 1.0 118 118
r 1.092 0 1 cbr 500 ------- 0 0.0 1.0 116 116
+ 1.095 0 1 cbr 500 ------- 0 0.0 1.0 119 119
- 1.095 0 1 cbr 500 ------- 0 0.0 1.0 119 119
r 1.097 0 1 cbr 500 ------- 0 0.0 1.0 117 117
+ 1.1 0 1 cbr 500 ------- 0 0.0 1.0 120 120
- 1.1 0 1 cbr 500 ------- 0 0.0 1.0 120 120
r 1.102 0 1 cbr 500 ------- 0 0.0 1.0 118 118
+ 1.105 0 1 cbr 500 ------- 0 0.0 1.0 121 121
- 1.105 0 1 cbr 500 ------- 0 0.0 1.0 121 121
r 1.107 0 1 cbr 500 ------- 0 0.0 1.0 119 119
+ 1.11 0 1 cbr 500 ------- 0 0.0 1.0 122 122
- 1.11 0 1 cbr 500 ------- 0 0.0 1.0 122 122
r 1.112 0 1 cbr 500 ------- 0 0.0 1.0 120 120
+ 1.115 0 1 cbr 500 ------- 0 0.0 1.0 123 123
- 1.115 0 1 cbr 500 ------- 0 0.0 1.0 123 123
r 1.117 0 1 cbr 500 ------- 0 0.0 1.0 121 121
+ 1.12 0 1 cbr 500 ------- 0 0.0 1.0 124 124
- 1.12 0 1 cbr 500 ------- 0 0.0 1.0 124 124
r 1.122 0 1 cbr 500 ------- 0 0.0 1.0 122 122
+ 1.125 0 1 cbr 500 ------- 0 0.0 1.0 125 125
- 1.125 0 1 cbr 500 ------- 0 0.0 1.0 125 125
r 1.127 0 1 cbr 500 ------- 0 0.0 1.0 123 123
+ 1.13 0 1 cbr 500 ------- 0 0.0 1.0 126 126
- 1.13 0 1 cbr 500 ------- 0 0.0 1.0 126 126
r 1.132 0 1 cbr 500 ------- 0 0.0 1.0 124 124
+ 1.135 0 1 cbr 500 ------- 0 0.0 1.0 127 127
- 1.135 0 1 cbr 500 ------- 0 0.0 1.0 127 127
r 1.137 0 1 cbr 500 ------- 0 0.0 1.0 125 125
+ 1.14 0 1 cbr 500 ------- 0 0.0 1.0 128 128
- 1.14 0 1 cbr 500 ------- 0 0.0 1.0 128 128
r 1.142 0 1 cbr 500 ------- 0 0.0 1.0 126 126
+ 1.145 0 1 cbr 500 ------- 0 0.0 1.0 129 129
- 1.145 0 1 cbr 500 ------- 0 0.0 1.0 129 129
r 1.147 0 1 cbr 500 ------- 0 0.0 1.0 127 127
+ 1.15 0 1 cbr 500 ------- 0 0.0 1.0 130 130
- 1.15 0 1 cbr 500 ------- 0 0.0 1.0 130 130
r 1.152 0 1 cbr 500 ------- 0 0.0 1.0 128 128
+ 1.155 0 1 cbr 500 ------- 0 0.0 1.0 131 131
- 1.155 0 1 cbr 500 ------- 0 0.0 1.0 131 131
r 1.157 0 1 cbr 500 ------- 0 0.0 1.0 129 129
+ 1.16 0 1 cbr 500 ------- 0 0.0 1.0 132 132
- 1.16 0 1 cbr 500 ------- 0 0.0 1.0 132 132
r 1.162 0 1 cbr 500 ------- 0 0.0 1.0 130 130
+ 1.165 0 1 cbr 500 ------- 0 0.0 1.0 133 133
- 1.165 0 1 cbr 500 ------- 0 0.0 1.0 133 133
r 1.167 0 1 cbr 500 ------- 0 0.0 1.0 131 131
+ 1.17 0 1 cbr 500 ------- 0 0.0 1.0 134 134
- 1.17 0 1 cbr 500 ------- 0 0.0 1.0 134 134
r 1.172 0 1 cbr 500 ------- 0 0.0 1.0 132 132
+ 1.175 0 1 cbr 500 ------- 0 0.0 1.0 135 135
- 1.175 0 1 cbr 500 ------- 0 0.0 1.0 135 135
r 1.177 0 1 cbr 500 ------- 0 0.0 1.0 133 133
+ 1.18 0 1 cbr 500 ------- 0 0.0 1.0 136 136
- 1.18 0 1 cbr 500 ------- 0 0.0 1.0 136 136
r 1.182 0 1 cbr 500 ------- 0 0.0 1.0 134 134
+ 1.185 0 1 cbr 500 ------- 0 0.0 1.0 137 137
- 1.185 0 1 cbr 500 ------- 0 0.0 1.0 137 137
r 1.187 0 1 cbr 500 ------- 0 0.0 1.0 135 135
+ 1.19 0 1 cbr 500 ------- 0 0.0 1.0 138 138
- 1.19 0 1 cbr 500 ------- 0 0.0 1.0 138 138
r 1.192 0 1 cbr 500 ------- 0 0.0 1.0 136 136
+ 1.195 0 1 cbr 500 ------- 0 0.0 1.0 139 139
- 1.195 0 1 cbr 500 ------- 0 0.0 1.0 139 139
r 1.197 0 1 cbr 500 ------- 0 0.0 1.0 137 137
+ 1.2 0 1 cbr 500 ------- 0 0.0 1.0 140 140
- 1.2 0 1 cbr 500 ------- 0 0.0 1.0 140 140
r 1.202 0 1 cbr 500 ------- 0 0.0 1.0 138 138
+ 1.205 0 1 cbr 500 ------- 0 0.0 1.0 141 141
- 1.205 0 1 cbr 500 ------- 0 0.0 1.0 141 141
r 1.207 0 1 cbr 500 ------- 0 0.0 1.0 139 139
+ 1.21 0 1 cbr 500 ------- 0 0.0 1.0 142 142
- 1.21 0 1 cbr 500 ------- 0 0.0 1.0 142 142
r 1.212 0 1 cbr 500 ------- 0 0.0 1.0 140 140
+ 1.215 0 1 cbr 500 ------- 0 0.0 1.0 143 143
- 1.215 0 1 cbr 500 ------- 0 0.0 1.0 143 143
r 1.217 0 1 cbr 500 ------- 0 0.0 1.0 141 141
+ 1.22 0 1 cbr 500 ------- 0 0.0 1.0 144 144
- 1.22 0 1 cbr 500 ------- 0 0.0 1.0 144 144
r 1.222 0 1 cbr 500 ------- 0 0.0 1.0 142 142
+ 1.225 0 1 cbr 500 ------- 0 0.0 1.0 145 145
- 1.225 0 1 cbr 500 ------- 0 0.0 1.0 145 145
r 1.227 0 1 cbr 500 ------- 0 0.0 1.0 143 143
+ 1.23 0 1 cbr 500 ------- 0 0.0 1.0 146 146
- 1.23 0 1 cbr 500 ------- 0 0.0 1.0 146 146
r 1.232 0 1 cbr 500 ------- 0 0.0 1.0 144 144
+ 1.235 0 1 cbr 500 ------- 0 0.0 1.0 147 147
- 1.235 0 1 cbr 500 ------- 0 0.0 1.0 147 147
r 1.237 0 1 cbr 500 ------- 0 0.0 1.0 145 145
+ 1.24 0 1 cbr 500 ------- 0 0.0 1.0 148 148
- 1.24 0 1 cbr 500 ------- 0 0.0 1.0 148 148
r 1.242 0 1 cbr 500 ------- 0 0.0 1.0 146 146
+ 1.245 0 1 cbr 500 ------- 0 0.0 1.0 149 149
- 1.245 0 1 cbr 500 ------- 0 0.0 1.0 149 149
r 1.247 0 1 cbr 500 ------- 0 0.0 1.0 147 147
+ 1.25 0 1 cbr 500 ------- 0 0.0 1.0 150 150
- 1.25 0 1 cbr 500 ------- 0 0.0 1.0 150 150
r 1.252 0 1 cbr 500 ------- 0 0.0 1.0 148 148
+ 1.255 0 1 cbr 500 ------- 0 0.0 1.0 151 151
- 1.255 0 1 cbr 500 ------- 0 0.0 1.0 151 151
r 1.257 0 1 cbr 500 ------- 0 0.0 1.0 149 149
+ 1.26 0 1 cbr 500 ------- 0 0.0 1.0 152 152
- 1.26 0 1 cbr 500 ------- 0 0.0 1.0 152 152
r 1.262 0 1 cbr 500 ------- 0 0.0 1.0 150 150
+ 1.265 0 1 cbr 500 ------- 0 0.0 1.0 153 153
- 1.265 0 1 cbr 500 ------- 0 0.0 1.0 153 153
r 1.267 0 1 cbr 500 ------- 0 0.0 1.0 151 151
+ 1.27 0 1 cbr 500 ------- 0 0.0 1.0 154 154
- 1.27 0 1 cbr 500 ------- 0 0.0 1.0 154 154
r 1.272 0 1 cbr 500 ------- 0 0.0 1.0 152 152
+ 1.275 0 1 cbr 500 ------- 0 0.0 1.0 155 155
- 1.275 0 1 cbr 500 ------- 0 0.0 1.0 155 155
r 1.277 0 1 cbr 500 ------- 0 0.0 1.0 153 153
+ 1.28 0 1 cbr 500 ------- 0 0.0 1.0 156 156
- 1.28 0 1 cbr 500 ------- 0 0.0 1.0 156 156
r 1.282 0 1 cbr 500 ------- 0 0.0 1.0 154 154
+ 1.285 0 1 cbr 500 ------- 0 0.0 1.0 157 157
- 1.285 0 1 cbr 500 ------- 0 0.0 1.0 157 157
r 1.287 0 1 cbr 500 ------- 0 0.0 1.0 155 155
+ 1.29 0 1 cbr 500 ------- 0 0.0 1.0 158 158
- 1.29 0 1 cbr 500 ------- 0 0.0 1.0 158 158
r 1.292 0 1 cbr 500 ------- 0 0.0 1.0 156 156
+ 1.295 0 1 cbr 500 ------- 0 0.0 1.0 159 159
- 1.295 0 1 cbr 500 ------- 0 0.0 1.0 159 159
r 1.297 0 1 cbr 500 ------- 0 0.0 1.0 157 157
+ 1.3 0 1 cbr 500 ------- 0 0.0 1.0 160 160
- 1.3 0 1 cbr 500 ------- 0 0.0 1.0 160 160
r 1.302 0 1 cbr 500 ------- 0 0.0 1.0 158 158
+ 1.305 0 1 cbr 500 ------- 0 0.0 1.0 161 161
- 1.305 0 1 cbr 500 ------- 0 0.0 1.0 161 161
r 1.307 0 1 cbr 500 ------- 0 0.0 1.0 159 159
+ 1.31 0 1 cbr 500 ------- 0 0.0 1.0 162 162
- 1.31 0 1 cbr 500 ------- 0 0.0 1.0 162 162
r 1.312 0 1 cbr 500 ------- 0 0.0 1.0 160 160
+ 1.315 0 1 cbr 500 ------- 0 0.0 1.0 163 163
- 1.315 0 1 cbr 500 ------- 0 0.0 1.0 163 163
r 1.317 0 1 cbr 500 ------- 0 0.0 1.0 161 161
+ 1.32 0 1 cbr 500 ------- 0 0.0 1.0 164 164
- 1.32 0 1 cbr 500 ------- 0 0.0 1.0 164 164
r 1.322 0 1 cbr 500 ------- 0 0.0 1.0 162 162
+ 1.325 0 1 cbr 500 ------- 0 0.0 1.0 165 165
- 1.325 0 1 cbr 500 ------- 0 0.0 1.0 165 165
r 1.327 0 1 cbr 500 ------- 0 0.0 1.0 163 163
+ 1.33 0 1 cbr 500 ------- 0 0.0 1.0 166 166
- 1.33 0 1 cbr 500 ------- 0 0.0 1.0 166 166
r 1.332 0 1 cbr 500 ------- 0 0.0 1.0 164 164
+ 1.335 0 1 cbr 500 ------- 0 0.0 1.0 167 167
- 1.335 0 1 cbr 500 ------- 0 0.0 1.0 167 167
r 1.337 0 1 cbr 500 ------- 0 0.0 1.0 165 165
+ 1.34 0 1 cbr 500 ------- 0 0.0 1.0 168 168
- 1.34 0 1 cbr 500 ------- 0 0.0 1.0 168 168
r 1.342 0 1 cbr 500 ------- 0 0.0 1.0 166 166
+ 1.345 0 1 cbr 500 ------- 0 0.0 1.0 169 169
- 1.345 0 1 cbr 500 ------- 0 0.0 1.0 169 169
r 1.347 0 1 cbr 500 ------- 0 0.0 1.0 167 167
+ 1.35 0 1 cbr 500 ------- 0 0.0 1.0 170 170
- 1.35 0 1 cbr 500 ------- 0 0.0 1.0 170 170
r 1.352 0 1 cbr 500 ------- 0 0.0 1.0 168 168
+ 1.355 0 1 cbr 500 ------- 0 0.0 1.0 171 171
- 1.355 0 1 cbr 500 ------- 0 0.0 1.0 171 171
r 1.357 0 1 cbr 500 ------- 0 0.0 1.0 169 169
+ 1.36 0 1 cbr 500 ------- 0 0.0 1.0 172 172
- 1.36 0 1 cbr 500 ------- 0 0.0 1.0 172 172
r 1.362 0 1 cbr 500 ------- 0 0.0 1.0 170 170
+ 1.365 0 1 cbr 500 ------- 0 0.0 1.0 173 173
- 1.365 0 1 cbr 500 ------- 0 0.0 1.0 173 173
r 1.367 0 1 cbr 500 ------- 0 0.0 1.0 171 171
+ 1.37 0 1 cbr 500 ------- 0 0.0 1.0 174 174
- 1.37 0 1 cbr 500 ------- 0 0.0 1.0 174 174
r 1.372 0 1 cbr 500 ------- 0 0.0 1.0 172 172
+ 1.375 0 1 cbr 500 ------- 0 0.0 1.0 175 175
- 1.375 0 1 cbr 500 ------- 0 0.0 1.0 175 175
r 1.377 0 1 cbr 500 ------- 0 0.0 1.0 173 173
+ 1.38 0 1 cbr 500 ------- 0 0.0 1.0 176 176
- 1.38 0 1 cbr 500 ------- 0 0.0 1.0 176 176
r 1.382 0 1 cbr 500 ------- 0 0.0 1.0 174 174
+ 1.385 0 1 cbr 500 ------- 0 0.0 1.0 177 177
- 1.385 0 1 cbr 500 ------- 0 0.0 1.0 177 177
r 1.387 0 1 cbr 500 ------- 0 0.0 1.0 175 175
+ 1.39 0 1 cbr 500 ------- 0 0.0 1.0 178 178
- 1.39 0 1 cbr 500 ------- 0 0.0 1.0 178 178
r 1.392 0 1 cbr 500 ------- 0 0.0 1.0 176 176
+ 1.395 0 1 cbr 500 ------- 0 0.0 1.0 179 179
- 1.395 0 1 cbr 500 ------- 0 0.0 1.0 179 179
r 1.397 0 1 cbr 500 ------- 0 0.0 1.0 177 177
+ 1.4 0 1 cbr 500 ------- 0 0.0 1.0 180 180
- 1.4 0 1 cbr 500 ------- 0 0.0 1.0 180 180
r 1.402 0 1 cbr 500 ------- 0 0.0 1.0 178 178
+ 1.405 0 1 cbr 500 ------- 0 0.0 1.0 181 181
- 1.405 0 1 cbr 500 ------- 0 0.0 1.0 181 181
r 1.407 0 1 cbr 500 ------- 0 0.0 1.0 179 179
+ 1.41 0 1 cbr 500 ------- 0 0.0 1.0 182 182
- 1.41 0 1 cbr 500 ------- 0 0.0 1.0 182 182
r 1.412 0 1 cbr 500 ------- 0 0.0 1.0 180 180
+ 1.415 0 1 cbr 500 ------- 0 0.0 1.0 183 183
- 1.415 0 1 cbr 500 ------- 0 0.0 1.0 183 183
r 1.417 0 1 cbr 500 ------- 0 0.0 1.0 181 181
+ 1.42 0 1 cbr 500 ------- 0 0.0 1.0 184 184
- 1.42 0 1 cbr 500 ------- 0 0.0 1.0 184 184
r 1.422 0 1 cbr 500 ------- 0 0.0 1.0 182 182
+ 1.425 0 1 cbr 500 ------- 0 0.0 1.0 185 185
- 1.425 0 1 cbr 500 ------- 0 0.0 1.0 185 185
r 1.427 0 1 cbr 500 ------- 0 0.0 1.0 183 183
+ 1.43 0 1 cbr 500 ------- 0 0.0 1.0 186 186
- 1.43 0 1 cbr 500 ------- 0 0.0 1.0 186 186
r 1.432 0 1 cbr 500 ------- 0 0.0 1.0 184 184
+ 1.435 0 1 cbr 500 ------- 0 0.0 1.0 187 187
- 1.435 0 1 cbr 500 ------- 0 0.0 1.0 187 187
r 1.437 0 1 cbr 500 ------- 0 0.0 1.0 185 185
+ 1.44 0 1 cbr 500 ------- 0 0.0 1.0 188 188
- 1.44 0 1 cbr 500 ------- 0 0.0 1.0 188 188
r 1.442 0 1 cbr 500 ------- 0 0.0 1.0 186 186
+ 1.445 0 1 cbr 500 ------- 0 0.0 1.0 189 189
- 1.445 0 1 cbr 500 ------- 0 0.0 1.0 189 189
r 1.447 0 1 cbr 500 ------- 0 0.0 1.0 187 187
+ 1.45 0 1 cbr 500 ------- 0 0.0 1.0 190 190
- 1.45 0 1 cbr 500 ------- 0 0.0 1.0 190 190
r 1.452 0 1 cbr 500 ------- 0 0.0 1.0 188 188
+ 1.455 0 1 cbr 500 ------- 0 0.0 1.0 191 191
- 1.455 0 1 cbr 500 ------- 0 0.0 1.0 191 191
r 1.457 0 1 cbr 500 ------- 0 0.0 1.0 189 189
+ 1.46 0 1 cbr 500 ------- 0 0.0 1.0 192 192
- 1.46 0 1 cbr 500 ------- 0 0.0 1.0 192 192
r 1.462 0 1 cbr 500 ------- 0 0.0 1.0 190 190
+ 1.465 0 1 cbr 500 ------- 0 0.0 1.0 193 193
- 1.465 0 1 cbr 500 ------- 0 0.0 1.0 193 193
r 1.467 0 1 cbr 500 ------- 0 0.0 1.0 191 191
+ 1.47 0 1 cbr 500 ------- 0 0.0 1.0 194 194
- 1.47 0 1 cbr 500 ------- 0 0.0 1.0 194 194
r 1.472 0 1 cbr 500 ------- 0 0.0 1.0 192 192
+ 1.475 0 1 cbr 500 ------- 0 0.0 1.0 195 195
- 1.475 0 1 cbr 500 ------- 0 0.0 1.0 195 195
r 1.477 0 1 cbr 500 ------- 0 0.0 1.0 193 193
+ 1.48 0 1 cbr 500 ------- 0 0.0 1.0 196 196
- 1.48 0 1 cbr 500 ------- 0 0.0 1.0 196 196
r 1.482 0 1 cbr 500 ------- 0 0.0 1.0 194 194
+ 1.485 0 1 cbr 500 ------- 0 0.0 1.0 197 197
- 1.485 0 1 cbr 500 ------- 0 0.0 1.0 197 197
r 1.487 0 1 cbr 500 ------- 0 0.0 1.0 195 195
+ 1.49 0 1 cbr 500 ------- 0 0.0 1.0 198 198
- 1.49 0 1 cbr 500 ------- 0 0.0 1.0 198 198
r 1.492 0 1 cbr 500 ------- 0 0.0 1.0 196 196
+ 1.495 0 1 cbr 500 ------- 0 0.0 1.0 199 199
- 1.495 0 1 cbr 500 ------- 0 0.0 1.0 199 199
r 1.497 0 1 cbr 500 ------- 0 0.0 1.0 197 197
+ 1.5 0 1 cbr 500 ------- 0 0.0 1.0 200 200
- 1.5 0 1 cbr 500 ------- 0 0.0 1.0 200 200
r 1.502 0 1 cbr 500 ------- 0 0.0 1.0 198 198
+ 1.505 0 1 cbr 500 ------- 0 0.0 1.0 201 201
- 1.505 0 1 cbr 500 ------- 0 0.0 1.0 201 201
r 1.507 0 1 cbr 500 ------- 0 0.0 1.0 199 199
+ 1.51 0 1 cbr 500 ------- 0 0.0 1.0 202 202
- 1.51 0 1 cbr 500 ------- 0 0.0 1.0 202 202
r 1.512 0 1 cbr 500 ------- 0 0.0 1.0 200 200
+ 1.515 0 1 cbr 500 ------- 0 0.0 1.0 203 203
- 1.515 0 1 cbr 500 ------- 0 0.0 1.0 203 203
r 1.517 0 1 cbr 500 ------- 0 0.0 1.0 201 201
+ 1.52 0 1 cbr 500 ------- 0 0.0 1.0 204 204
- 1.52 0 1 cbr 500 ------- 0 0.0 1.0 204 204
r 1.522 0 1 cbr 500 ------- 0 0.0 1.0 202 202
+ 1.525 0 1 cbr 500 ------- 0 0.0 1.0 205 205
- 1.525 0 1 cbr 500 ------- 0 0.0 1.0 205 205
r 1.527 0 1 cbr 500 ------- 0 0.0 1.0 203 203
+ 1.53 0 1 cbr 500 ------- 0 0.0 1.0 206 206
- 1.53 0 1 cbr 500 ------- 0 0.0 1.0 206 206
r 1.532 0 1 cbr 500 ------- 0 0.0 1.0 204 204
+ 1.535 0 1 cbr 500 ------- 0 0.0 1.0 207 207
- 1.535 0 1 cbr 500 ------- 0 0.0 1.0 207 207
r 1.537 0 1 cbr 500 ------- 0 0.0 1.0 205 205
+ 1.54 0 1 cbr 500 ------- 0 0.0 1.0 208 208
- 1.54 0 1 cbr 500 ------- 0 0.0 1.0 208 208
r 1.542 0 1 cbr 500 ------- 0 0.0 1.0 206 206
+ 1.545 0 1 cbr 500 ------- 0 0.0 1.0 209 209
- 1.545 0 1 cbr 500 ------- 0 0.0 1.0 209 209
r 1.547 0 1 cbr 500 ------- 0 0.0 1.0 207 207
+ 1.55 0 1 cbr 500 ------- 0 0.0 1.0 210 210
- 1.55 0 1 cbr 500 ------- 0 0.0 1.0 210 210
r 1.552 0 1 cbr 500 ------- 0 0.0 1.0 208 208
+ 1.555 0 1 cbr 500 ------- 0 0.0 1.0 211 211
- 1.555 0 1 cbr 500 ------- 0 0.0 1.0 211 211
r 1.557 0 1 cbr 500 ------- 0 0.0 1.0 209 209
+ 1.56 0 1 cbr 500 ------- 0 0.0 1.0 212 212
- 1.56 0 1 cbr 500 ------- 0 0.0 1.0 212 212
r 1.562 0 1 cbr 500 ------- 0 0.0 1.0 210 210
+ 1.565 0 1 cbr 500 ------- 0 0.0 1.0 213 213
- 1.565 0 1 cbr 500 ------- 0 0.0 1.0 213 213
r 1.567 0 1 cbr 500 ------- 0 0.0 1.0 211 211
+ 1.57 0 1 cbr 500 ------- 0 0.0 1.0 214 214
- 1.57 0 1 cbr 500 ------- 0 0.0 1.0 214 214
r 1.572 0 1 cbr 500 ------- 0 0.0 1.0 212 212
+ 1.575 0 1 cbr 500 ------- 0 0.0 1.0 215 215
- 1.575 0 1 cbr 500 ------- 0 0.0 1.0 215 215
r 1.577 0 1 cbr 500 ------- 0 0.0 1.0 213 213
+ 1.58 0 1 cbr 500 ------- 0 0.0 1.0 216 216
- 1.58 0 1 cbr 500 ------- 0 0.0 1.0 216 216
r 1.582 0 1 cbr 500 ------- 0 0.0 1.0 214 214
+ 1.585 0 1 cbr 500 ------- 0 0.0 1.0 217 217
- 1.585 0 1 cbr 500 ------- 0 0.0 1.0 217 217
r 1.587 0 1 cbr 500 ------- 0 0.0 1.0 215 215
+ 1.59 0 1 cbr 500 ------- 0 0.0 1.0 218 218
- 1.59 0 1 cbr 500 ------- 0 0.0 1.0 218 218
r 1.592 0 1 cbr 500 ------- 0 0.0 1.0 216 216
+ 1.595 0 1 cbr 500 ------- 0 0.0 1.0 219 219
- 1.595 0 1 cbr 500 ------- 0 0.0 1.0 219 219
r 1.597 0 1 cbr 500 ------- 0 0.0 1.0 217 217
+ 1.6 0 1 cbr 500 ------- 0 0.0 1.0 220 220
- 1.6 0 1 cbr 500 ------- 0 0.0 1.0 220 220
r 1.602 0 1 cbr 500 ------- 0 0.0 1.0 218 218
+ 1.605 0 1 cbr 500 ------- 0 0.0 1.0 221 221
- 1.605 0 1 cbr 500 ------- 0 0.0 1.0 221 221
r 1.607 0 1 cbr 500 ------- 0 0.0 1.0 219 219
+ 1.61 0 1 cbr 500 ------- 0 0.0 1.0 222 222
- 1.61 0 1 cbr 500 ------- 0 0.0 1.0 222 222
r 1.612 0 1 cbr 500 ------- 0 0.0 1.0 220 220
+ 1.615 0 1 cbr 500 ------- 0 0.0 1.0 223 223
- 1.615 0 1 cbr 500 ------- 0 0.0 1.0 223 223
r 1.617 0 1 cbr 500 ------- 0 0.0 1.0 221 221
+ 1.62 0 1 cbr 500 ------- 0 0.0 1.0 224 224
- 1.62 0 1 cbr 500 ------- 0 0.0 1.0 224 224